ITEM: TIMESTEP
0
ITEM: NUMBER OF ATOMS
13800
ITEM: BOX BOUNDS pp pp pp
-24.0069772 36.0104658
-24.0069772 48.0139544
-48.0139544 72.0209316
ITEM: ATOMS id type x y z
1 1 -13.3569772 -20.3069772 -47.9739544
5 1 -20.3069772 -23.9669772 -46.6639544
9 1 -24.0569772 -21.0069772 -41.9639544
13 1 -15.7969772 -20.1369772 -39.8339544
17 1 -21.8269772 -21.7969772 -45.7539544
21 1 -23.9569772 -15.0069772 -41.9639544
25 1 -21.8269772 -14.1369772 -45.8039544
29 1 -17.9669772 -14.2569772 -43.4439544
33 1 -16.6369772 -18.0069772 -38.2339544
37 1 -14.2169772 -21.7469772 -38.1939544
41 1 -20.2169772 -20.1369772 -44.1939544
45 1 -21.7569772 -19.4369772 -41.9739544
49 1 -20.1869772 -15.7469772 -44.2239544
53 1 -20.1869772 -20.2669772 -39.8039544
57 1 -15.7769772 -24.0069772 -46.6439544
61 1 -18.0069772 -21.6669772 -43.4339544
65 1 -14.2069772 -14.1869772 -45.8839544
69 1 -18.0069772 -14.2269772 -40.6439544
73 1 -14.3069772 -19.3569772 -42.0539544
77 1 -20.2569772 -24.0469772 -37.4439544
81 1 -17.9669772 -21.7069772 -40.6639544
85 1 -20.1869772 -15.7969772 -39.8739544
89 1 -13.3669772 -15.7769772 -48.0139544
93 1 -14.2169772 -14.2569772 -38.1939544
97 1 -24.0069772 -22.6369772 -44.2339544
101 1 -14.1869772 -21.8769772 -45.8039544
105 1 -14.2569772 -16.5669772 -41.9739544
109 1 -15.0069772 -18.0469772 -47.9639544
113 1 -24.0069772 -13.4269772 -39.6739544
117 1 -15.8669772 -15.8269772 -39.8039544
121 1 -18.0469772 -23.9569772 -45.0139544
125 1 -24.0469772 -22.6569772 -39.7139544
129 1 -21.7069772 -16.6569772 -42.0539544
133 1 -19.4369772 -17.9669772 -45.7639544
137 1 -19.4269772 -18.0069772 -38.3539544
141 1 -21.8269772 -21.8769772 -38.2139544
145 1 -24.0469772 -13.4369772 -44.2639544
149 1 -22.5769772 -15.7469772 -47.9739544
153 1 -22.5769772 -20.3469772 -48.0139544
157 1 -15.7969772 -20.1869772 -44.2739544
161 1 -15.7469772 -15.7969772 -44.1939544
165 1 -16.6569772 -17.9669772 -45.7139544
169 1 -21.7969772 -14.2569772 -38.1939544
173 1 -17.9569772 -23.9569772 -39.0139544
177 1 -21.0069772 -18.0469772 -48.0639544
181 1 -15.6669772 -24.0069772 -37.4339544
182 1 -13.3569772 -20.3069772 -35.9704658
186 1 -20.3069772 -23.9669772 -34.6604658
190 1 -24.0569772 -21.0069772 -29.9604658
194 1 -15.7969772 -20.1369772 -27.8304658
198 1 -21.8269772 -21.7969772 -33.7504658
202 1 -23.9569772 -15.0069772 -29.9604658
206 1 -21.8269772 -14.1369772 -33.8004658
210 1 -17.9669772 -14.2569772 -31.4404658
214 1 -16.6369772 -18.0069772 -26.2304658
218 1 -14.2169772 -21.7469772 -26.1904658
222 1 -20.2169772 -20.1369772 -32.1904658
226 1 -21.7569772 -19.4369772 -29.9704658
230 1 -20.1869772 -15.7469772 -32.2204658
234 1 -20.1869772 -20.2669772 -27.8004658
238 1 -15.7769772 -24.0069772 -34.6404658
242 1 -18.0069772 -21.6669772 -31.4304658
246 1 -14.2069772 -14.1869772 -33.8804658
250 1 -18.0069772 -14.2269772 -28.6404658
254 1 -14.3069772 -19.3569772 -30.0504658
258 1 -20.2569772 -24.0469772 -25.4404658
262 1 -17.9669772 -21.7069772 -28.6604658
266 1 -20.1869772 -15.7969772 -27.8704658
270 1 -13.3669772 -15.7769772 -36.0104658
274 1 -14.2169772 -14.2569772 -26.1904658
278 1 -24.0069772 -22.6369772 -32.2304658
282 1 -14.1869772 -21.8769772 -33.8004658
286 1 -14.2569772 -16.5669772 -29.9704658
290 1 -15.0069772 -18.0469772 -35.9604658
294 1 -24.0069772 -13.4269772 -27.6704658
298 1 -15.8669772 -15.8269772 -27.8004658
302 1 -18.0469772 -23.9569772 -33.0104658
306 1 -24.0469772 -22.6569772 -27.7104658
310 1 -21.7069772 -16.6569772 -30.0504658
314 1 -19.4369772 -17.9669772 -33.7604658
318 1 -19.4269772 -18.0069772 -26.3504658
322 1 -21.8269772 -21.8769772 -26.2104658
326 1 -24.0469772 -13.4369772 -32.2604658
330 1 -22.5769772 -15.7469772 -35.9704658
334 1 -22.5769772 -20.3469772 -36.0104658
338 1 -15.7969772 -20.1869772 -32.2704658
342 1 -15.7469772 -15.7969772 -32.1904658
346 1 -16.6569772 -17.9669772 -33.7104658
350 1 -21.7969772 -14.2569772 -26.1904658
354 1 -17.9569772 -23.9569772 -27.0104658
358 1 -21.0069772 -18.0469772 -36.0604658
362 1 -15.6669772 -24.0069772 -25.4304658
363 1 -13.3569772 -20.3069772 -23.9669772
367 1 -20.3069772 -23.9669772 -22.6569772
371 1 -24.0569772 -21.0069772 -17.9569772
375 1 -15.7969772 -20.1369772 -15.8269772
379 1 -21.8269772 -21.7969772 -21.7469772
383 1 -23.9569772 -15.0069772 -17.9569772
387 1 -21.8269772 -14.1369772 -21.7969772
391 1 -17.9669772 -14.2569772 -19.4369772
395 1 -16.6369772 -18.0069772 -14.2269772
399 1 -14.2169772 -21.7469772 -14.1869772
403 1 -20.2169772 -20.1369772 -20.1869772
407 1 -21.7569772 -19.4369772 -17.9669772
411 1 -20.1869772 -15.7469772 -20.2169772
415 1 -20.1869772 -20.2669772 -15.7969772
419 1 -15.7769772 -24.0069772 -22.6369772
423 1 -18.0069772 -21.6669772 -19.4269772
427 1 -14.2069772 -14.1869772 -21.8769772
431 1 -18.0069772 -14.2269772 -16.6369772
435 1 -14.3069772 -19.3569772 -18.0469772
439 1 -20.2569772 -24.0469772 -13.4369772
443 1 -17.9669772 -21.7069772 -16.6569772
447 1 -20.1869772 -15.7969772 -15.8669772
451 1 -13.3669772 -15.7769772 -24.0069772
455 1 -14.2169772 -14.2569772 -14.1869772
459 1 -24.0069772 -22.6369772 -20.2269772
463 1 -14.1869772 -21.8769772 -21.7969772
467 1 -14.2569772 -16.5669772 -17.9669772
471 1 -15.0069772 -18.0469772 -23.9569772
475 1 -24.0069772 -13.4269772 -15.6669772
479 1 -15.8669772 -15.8269772 -15.7969772
483 1 -18.0469772 -23.9569772 -21.0069772
487 1 -24.0469772 -22.6569772 -15.7069772
491 1 -21.7069772 -16.6569772 -18.0469772
495 1 -19.4369772 -17.9669772 -21.7569772
499 1 -19.4269772 -18.0069772 -14.3469772
503 1 -21.8269772 -21.8769772 -14.2069772
507 1 -24.0469772 -13.4369772 -20.2569772
511 1 -22.5769772 -15.7469772 -23.9669772
515 1 -22.5769772 -20.3469772 -24.0069772
519 1 -15.7969772 -20.1869772 -20.2669772
523 1 -15.7469772 -15.7969772 -20.1869772
527 1 -16.6569772 -17.9669772 -21.7069772
531 1 -21.7969772 -14.2569772 -14.1869772
535 1 -17.9569772 -23.9569772 -15.0069772
539 1 -21.0069772 -18.0469772 -24.0569772
543 1 -15.6669772 -24.0069772 -13.4269772
544 1 -13.3569772 -20.3069772 -11.9634886
548 1 -20.3069772 -23.9669772 -10.6534886
552 1 -24.0569772 -21.0069772 -5.9534886
556 1 -15.7969772 -20.1369772 -3.8234886
560 1 -21.8269772 -21.7969772 -9.7434886
564 1 -23.9569772 -15.0069772 -5.9534886
568 1 -21.8269772 -14.1369772 -9.7934886
572 1 -17.9669772 -14.2569772 -7.4334886
576 1 -16.6369772 -18.0069772 -2.2234886
580 1 -14.2169772 -21.7469772 -2.1834886
584 1 -20.2169772 -20.1369772 -8.1834886
588 1 -21.7569772 -19.4369772 -5.9634886
592 1 -20.1869772 -15.7469772 -8.2134886
596 1 -20.1869772 -20.2669772 -3.7934886
600 1 -15.7769772 -24.0069772 -10.6334886
604 1 -18.0069772 -21.6669772 -7.4234886
608 1 -14.2069772 -14.1869772 -9.8734886
612 1 -18.0069772 -14.2269772 -4.6334886
616 1 -14.3069772 -19.3569772 -6.0434886
620 1 -20.2569772 -24.0469772 -1.4334886
624 1 -17.9669772 -21.7069772 -4.6534886
628 1 -20.1869772 -15.7969772 -3.8634886
632 1 -13.3669772 -15.7769772 -12.0034886
636 1 -14.2169772 -14.2569772 -2.1834886
640 1 -24.0069772 -22.6369772 -8.2234886
644 1 -14.1869772 -21.8769772 -9.7934886
648 1 -14.2569772 -16.5669772 -5.9634886
652 1 -15.0069772 -18.0469772 -11.9534886
656 1 -24.0069772 -13.4269772 -3.6634886
660 1 -15.8669772 -15.8269772 -3.7934886
664 1 -18.0469772 -23.9569772 -9.0034886
668 1 -24.0469772 -22.6569772 -3.7034886
672 1 -21.7069772 -16.6569772 -6.0434886
676 1 -19.4369772 -17.9669772 -9.7534886
680 1 -19.4269772 -18.0069772 -2.3434886
684 1 -21.8269772 -21.8769772 -2.2034886
688 1 -24.0469772 -13.4369772 -8.2534886
692 1 -22.5769772 -15.7469772 -11.9634886
696 1 -22.5769772 -20.3469772 -12.0034886
700 1 -15.7969772 -20.1869772 -8.2634886
704 1 -15.7469772 -15.7969772 -8.1834886
708 1 -16.6569772 -17.9669772 -9.7034886
712 1 -21.7969772 -14.2569772 -2.1834886
716 1 -17.9569772 -23.9569772 -3.0034886
720 1 -21.0069772 -18.0469772 -12.0534886
724 1 -15.6669772 -24.0069772 -1.4234886
725 1 -13.3569772 -20.3069772 0.04
729 1 -20.3069772 -23.9669772 1.35
733 1 -24.0569772 -21.0069772 6.05
737 1 -15.7969772 -20.1369772 8.18
741 1 -21.8269772 -21.7969772 2.26
745 1 -23.9569772 -15.0069772 6.05
749 1 -21.8269772 -14.1369772 2.21
753 1 -17.9669772 -14.2569772 4.57
757 1 -16.6369772 -18.0069772 9.78
761 1 -14.2169772 -21.7469772 9.82
765 1 -20.2169772 -20.1369772 3.82
769 1 -21.7569772 -19.4369772 6.04
773 1 -20.1869772 -15.7469772 3.79
777 1 -20.1869772 -20.2669772 8.21
781 1 -15.7769772 -24.0069772 1.37
785 1 -18.0069772 -21.6669772 4.58
789 1 -14.2069772 -14.1869772 2.13
793 1 -18.0069772 -14.2269772 7.37
797 1 -14.3069772 -19.3569772 5.96
801 1 -20.2569772 -24.0469772 10.57
805 1 -17.9669772 -21.7069772 7.35
809 1 -20.1869772 -15.7969772 8.14
813 1 -13.3669772 -15.7769772 0.0
817 1 -14.2169772 -14.2569772 9.82
821 1 -24.0069772 -22.6369772 3.78
825 1 -14.1869772 -21.8769772 2.21
829 1 -14.2569772 -16.5669772 6.04
833 1 -15.0069772 -18.0469772 0.05
837 1 -24.0069772 -13.4269772 8.34
841 1 -15.8669772 -15.8269772 8.21
845 1 -18.0469772 -23.9569772 3.0
849 1 -24.0469772 -22.6569772 8.3
853 1 -21.7069772 -16.6569772 5.96
857 1 -19.4369772 -17.9669772 2.25
861 1 -19.4269772 -18.0069772 9.66
865 1 -21.8269772 -21.8769772 9.8
869 1 -24.0469772 -13.4369772 3.75
873 1 -22.5769772 -15.7469772 0.04
877 1 -22.5769772 -20.3469772 0.0
881 1 -15.7969772 -20.1869772 3.74
885 1 -15.7469772 -15.7969772 3.82
889 1 -16.6569772 -17.9669772 2.3
893 1 -21.7969772 -14.2569772 9.82
897 1 -17.9569772 -23.9569772 9.0
901 1 -21.0069772 -18.0469772 -0.05
905 1 -15.6669772 -24.0069772 10.58
906 1 -13.3569772 -20.3069772 12.0434886
910 1 -20.3069772 -23.9669772 13.3534886
914 1 -24.0569772 -21.0069772 18.0534886
918 1 -15.7969772 -20.1369772 20.1834886
922 1 -21.8269772 -21.7969772 14.2634886
926 1 -23.9569772 -15.0069772 18.0534886
930 1 -21.8269772 -14.1369772 14.2134886
934 1 -17.9669772 -14.2569772 16.5734886
938 1 -16.6369772 -18.0069772 21.7834886
942 1 -14.2169772 -21.7469772 21.8234886
946 1 -20.2169772 -20.1369772 15.8234886
950 1 -21.7569772 -19.4369772 18.0434886
954 1 -20.1869772 -15.7469772 15.7934886
958 1 -20.1869772 -20.2669772 20.2134886
962 1 -15.7769772 -24.0069772 13.3734886
966 1 -18.0069772 -21.6669772 16.5834886
970 1 -14.2069772 -14.1869772 14.1334886
974 1 -18.0069772 -14.2269772 19.3734886
978 1 -14.3069772 -19.3569772 17.9634886
982 1 -20.2569772 -24.0469772 22.5734886
986 1 -17.9669772 -21.7069772 19.3534886
990 1 -20.1869772 -15.7969772 20.1434886
994 1 -13.3669772 -15.7769772 12.0034886
998 1 -14.2169772 -14.2569772 21.8234886
1002 1 -24.0069772 -22.6369772 15.7834886
1006 1 -14.1869772 -21.8769772 14.2134886
1010 1 -14.2569772 -16.5669772 18.0434886
1014 1 -15.0069772 -18.0469772 12.0534886
1018 1 -24.0069772 -13.4269772 20.3434886
1022 1 -15.8669772 -15.8269772 20.2134886
1026 1 -18.0469772 -23.9569772 15.0034886
1030 1 -24.0469772 -22.6569772 20.3034886
1034 1 -21.7069772 -16.6569772 17.9634886
1038 1 -19.4369772 -17.9669772 14.2534886
1042 1 -19.4269772 -18.0069772 21.6634886
1046 1 -21.8269772 -21.8769772 21.8034886
1050 1 -24.0469772 -13.4369772 15.7534886
1054 1 -22.5769772 -15.7469772 12.0434886
1058 1 -22.5769772 -20.3469772 12.0034886
1062 1 -15.7969772 -20.1869772 15.7434886
1066 1 -15.7469772 -15.7969772 15.8234886
1070 1 -16.6569772 -17.9669772 14.3034886
1074 1 -21.7969772 -14.2569772 21.8234886
1078 1 -17.9569772 -23.9569772 21.0034886
1082 1 -21.0069772 -18.0469772 11.9534886
1086 1 -15.6669772 -24.0069772 22.5834886
1087 1 -13.3569772 -20.3069772 24.0469772
1091 1 -20.3069772 -23.9669772 25.3569772
1095 1 -24.0569772 -21.0069772 30.0569772
1099 1 -15.7969772 -20.1369772 32.1869772
1103 1 -21.8269772 -21.7969772 26.2669772
1107 1 -23.9569772 -15.0069772 30.0569772
1111 1 -21.8269772 -14.1369772 26.2169772
1115 1 -17.9669772 -14.2569772 28.5769772
1119 1 -16.6369772 -18.0069772 33.7869772
1123 1 -14.2169772 -21.7469772 33.8269772
1127 1 -20.2169772 -20.1369772 27.8269772
1131 1 -21.7569772 -19.4369772 30.0469772
1135 1 -20.1869772 -15.7469772 27.7969772
1139 1 -20.1869772 -20.2669772 32.2169772
1143 1 -15.7769772 -24.0069772 25.3769772
1147 1 -18.0069772 -21.6669772 28.5869772
1151 1 -14.2069772 -14.1869772 26.1369772
1155 1 -18.0069772 -14.2269772 31.3769772
1159 1 -14.3069772 -19.3569772 29.9669772
1163 1 -20.2569772 -24.0469772 34.5769772
1167 1 -17.9669772 -21.7069772 31.3569772
1171 1 -20.1869772 -15.7969772 32.1469772
1175 1 -13.3669772 -15.7769772 24.0069772
1179 1 -14.2169772 -14.2569772 33.8269772
1183 1 -24.0069772 -22.6369772 27.7869772
1187 1 -14.1869772 -21.8769772 26.2169772
1191 1 -14.2569772 -16.5669772 30.0469772
1195 1 -15.0069772 -18.0469772 24.0569772
1199 1 -24.0069772 -13.4269772 32.3469772
1203 1 -15.8669772 -15.8269772 32.2169772
1207 1 -18.0469772 -23.9569772 27.0069772
1211 1 -24.0469772 -22.6569772 32.3069772
1215 1 -21.7069772 -16.6569772 29.9669772
1219 1 -19.4369772 -17.9669772 26.2569772
1223 1 -19.4269772 -18.0069772 33.6669772
1227 1 -21.8269772 -21.8769772 33.8069772
1231 1 -24.0469772 -13.4369772 27.7569772
1235 1 -22.5769772 -15.7469772 24.0469772
1239 1 -22.5769772 -20.3469772 24.0069772
1243 1 -15.7969772 -20.1869772 27.7469772
1247 1 -15.7469772 -15.7969772 27.8269772
1251 1 -16.6569772 -17.9669772 26.3069772
1255 1 -21.7969772 -14.2569772 33.8269772
1259 1 -17.9569772 -23.9569772 33.0069772
1263 1 -21.0069772 -18.0469772 23.9569772
1267 1 -15.6669772 -24.0069772 34.5869772
1268 1 -13.3569772 -20.3069772 36.0504658
1272 1 -20.3069772 -23.9669772 37.3604658
1276 1 -24.0569772 -21.0069772 42.0604658
1280 1 -15.7969772 -20.1369772 44.1904658
1284 1 -21.8269772 -21.7969772 38.2704658
1288 1 -23.9569772 -15.0069772 42.0604658
1292 1 -21.8269772 -14.1369772 38.2204658
1296 1 -17.9669772 -14.2569772 40.5804658
1300 1 -16.6369772 -18.0069772 45.7904658
1304 1 -14.2169772 -21.7469772 45.8304658
1308 1 -20.2169772 -20.1369772 39.8304658
1312 1 -21.7569772 -19.4369772 42.0504658
1316 1 -20.1869772 -15.7469772 39.8004658
1320 1 -20.1869772 -20.2669772 44.2204658
1324 1 -15.7769772 -24.0069772 37.3804658
1328 1 -18.0069772 -21.6669772 40.5904658
1332 1 -14.2069772 -14.1869772 38.1404658
1336 1 -18.0069772 -14.2269772 43.3804658
1340 1 -14.3069772 -19.3569772 41.9704658
1344 1 -20.2569772 -24.0469772 46.5804658
1348 1 -17.9669772 -21.7069772 43.3604658
1352 1 -20.1869772 -15.7969772 44.1504658
1356 1 -13.3669772 -15.7769772 36.0104658
1360 1 -14.2169772 -14.2569772 45.8304658
1364 1 -24.0069772 -22.6369772 39.7904658
1368 1 -14.1869772 -21.8769772 38.2204658
1372 1 -14.2569772 -16.5669772 42.0504658
1376 1 -15.0069772 -18.0469772 36.0604658
1380 1 -24.0069772 -13.4269772 44.3504658
1384 1 -15.8669772 -15.8269772 44.2204658
1388 1 -18.0469772 -23.9569772 39.0104658
1392 1 -24.0469772 -22.6569772 44.3104658
1396 1 -21.7069772 -16.6569772 41.9704658
1400 1 -19.4369772 -17.9669772 38.2604658
1404 1 -19.4269772 -18.0069772 45.6704658
1408 1 -21.8269772 -21.8769772 45.8104658
1412 1 -24.0469772 -13.4369772 39.7604658
1416 1 -22.5769772 -15.7469772 36.0504658
1420 1 -22.5769772 -20.3469772 36.0104658
1424 1 -15.7969772 -20.1869772 39.7504658
1428 1 -15.7469772 -15.7969772 39.8304658
1432 1 -16.6569772 -17.9669772 38.3104658
1436 1 -21.7969772 -14.2569772 45.8304658
1440 1 -17.9569772 -23.9569772 45.0104658
1444 1 -21.0069772 -18.0469772 35.9604658
1448 1 -15.6669772 -24.0069772 46.5904658
1449 1 -13.3569772 -20.3069772 48.0539544
1453 1 -20.3069772 -23.9669772 49.3639544
1457 1 -24.0569772 -21.0069772 54.0639544
1461 1 -15.7969772 -20.1369772 56.1939544
1465 1 -21.8269772 -21.7969772 50.2739544
1469 1 -23.9569772 -15.0069772 54.0639544
1473 1 -21.8269772 -14.1369772 50.2239544
1477 1 -17.9669772 -14.2569772 52.5839544
1481 1 -16.6369772 -18.0069772 57.7939544
1485 1 -14.2169772 -21.7469772 57.8339544
1489 1 -20.2169772 -20.1369772 51.8339544
1493 1 -21.7569772 -19.4369772 54.0539544
1497 1 -20.1869772 -15.7469772 51.8039544
1501 1 -20.1869772 -20.2669772 56.2239544
1505 1 -15.7769772 -24.0069772 49.3839544
1509 1 -18.0069772 -21.6669772 52.5939544
1513 1 -14.2069772 -14.1869772 50.1439544
1517 1 -18.0069772 -14.2269772 55.3839544
1521 1 -14.3069772 -19.3569772 53.9739544
1525 1 -20.2569772 -24.0469772 58.5839544
1529 1 -17.9669772 -21.7069772 55.3639544
1533 1 -20.1869772 -15.7969772 56.1539544
1537 1 -13.3669772 -15.7769772 48.0139544
1541 1 -14.2169772 -14.2569772 57.8339544
1545 1 -24.0069772 -22.6369772 51.7939544
1549 1 -14.1869772 -21.8769772 50.2239544
1553 1 -14.2569772 -16.5669772 54.0539544
1557 1 -15.0069772 -18.0469772 48.0639544
1561 1 -24.0069772 -13.4269772 56.3539544
1565 1 -15.8669772 -15.8269772 56.2239544
1569 1 -18.0469772 -23.9569772 51.0139544
1573 1 -24.0469772 -22.6569772 56.3139544
1577 1 -21.7069772 -16.6569772 53.9739544
1581 1 -19.4369772 -17.9669772 50.2639544
1585 1 -19.4269772 -18.0069772 57.6739544
1589 1 -21.8269772 -21.8769772 57.8139544
1593 1 -24.0469772 -13.4369772 51.7639544
1597 1 -22.5769772 -15.7469772 48.0539544
1601 1 -22.5769772 -20.3469772 48.0139544
1605 1 -15.7969772 -20.1869772 51.7539544
1609 1 -15.7469772 -15.7969772 51.8339544
1613 1 -16.6569772 -17.9669772 50.3139544
1617 1 -21.7969772 -14.2569772 57.8339544
1621 1 -17.9569772 -23.9569772 57.0139544
1625 1 -21.0069772 -18.0469772 47.9639544
1629 1 -15.6669772 -24.0069772 58.5939544
1630 1 -13.3569772 -20.3069772 60.057443
1634 1 -20.3069772 -23.9669772 61.367443
1638 1 -24.0569772 -21.0069772 66.067443
1642 1 -15.7969772 -20.1369772 68.197443
1646 1 -21.8269772 -21.7969772 62.277443
1650 1 -23.9569772 -15.0069772 66.067443
1654 1 -21.8269772 -14.1369772 62.227443
1658 1 -17.9669772 -14.2569772 64.587443
1662 1 -16.6369772 -18.0069772 69.797443
1666 1 -14.2169772 -21.7469772 69.837443
1670 1 -20.2169772 -20.1369772 63.837443
1674 1 -21.7569772 -19.4369772 66.057443
1678 1 -20.1869772 -15.7469772 63.807443
1682 1 -20.1869772 -20.2669772 68.227443
1686 1 -15.7769772 -24.0069772 61.387443
1690 1 -18.0069772 -21.6669772 64.597443
1694 1 -14.2069772 -14.1869772 62.147443
1698 1 -18.0069772 -14.2269772 67.387443
1702 1 -14.3069772 -19.3569772 65.977443
1706 1 -20.2569772 -24.0469772 70.587443
1710 1 -17.9669772 -21.7069772 67.367443
1714 1 -20.1869772 -15.7969772 68.157443
1718 1 -13.3669772 -15.7769772 60.017443
1722 1 -14.2169772 -14.2569772 69.837443
1726 1 -24.0069772 -22.6369772 63.797443
1730 1 -14.1869772 -21.8769772 62.227443
1734 1 -14.2569772 -16.5669772 66.057443
1738 1 -15.0069772 -18.0469772 60.067443
1742 1 -24.0069772 -13.4269772 68.357443
1746 1 -15.8669772 -15.8269772 68.227443
1750 1 -18.0469772 -23.9569772 63.017443
1754 1 -24.0469772 -22.6569772 68.317443
1758 1 -21.7069772 -16.6569772 65.977443
1762 1 -19.4369772 -17.9669772 62.267443
1766 1 -19.4269772 -18.0069772 69.677443
1770 1 -21.8269772 -21.8769772 69.817443
1774 1 -24.0469772 -13.4369772 63.767443
1778 1 -22.5769772 -15.7469772 60.057443
1782 1 -22.5769772 -20.3469772 60.017443
1786 1 -15.7969772 -20.1869772 63.757443
1790 1 -15.7469772 -15.7969772 63.837443
1794 1 -16.6569772 -17.9669772 62.317443
1798 1 -21.7969772 -14.2569772 69.837443
1802 1 -17.9569772 -23.9569772 69.017443
1806 1 -21.0069772 -18.0469772 59.967443
1810 1 -15.6669772 -24.0069772 70.597443
1811 1 -13.3569772 -8.3034886 -47.9739544
1815 1 -20.3069772 -11.9634886 -46.6639544
1819 1 -24.0569772 -9.0034886 -41.9639544
1823 1 -15.7969772 -8.1334886 -39.8339544
1827 1 -21.8269772 -9.7934886 -45.7539544
1831 1 -23.9569772 -3.0034886 -41.9639544
1835 1 -21.8269772 -2.1334886 -45.8039544
1839 1 -17.9669772 -2.2534886 -43.4439544
1843 1 -16.6369772 -6.0034886 -38.2339544
1847 1 -14.2169772 -9.7434886 -38.1939544
1851 1 -20.2169772 -8.1334886 -44.1939544
1855 1 -21.7569772 -7.4334886 -41.9739544
1859 1 -20.1869772 -3.7434886 -44.2239544
1863 1 -20.1869772 -8.2634886 -39.8039544
1867 1 -15.7769772 -12.0034886 -46.6439544
1871 1 -18.0069772 -9.6634886 -43.4339544
1875 1 -14.2069772 -2.1834886 -45.8839544
1879 1 -18.0069772 -2.2234886 -40.6439544
1883 1 -14.3069772 -7.3534886 -42.0539544
1887 1 -20.2569772 -12.0434886 -37.4439544
1891 1 -17.9669772 -9.7034886 -40.6639544
1895 1 -20.1869772 -3.7934886 -39.8739544
1899 1 -13.3669772 -3.7734886 -48.0139544
1903 1 -14.2169772 -2.2534886 -38.1939544
1907 1 -24.0069772 -10.6334886 -44.2339544
1911 1 -14.1869772 -9.8734886 -45.8039544
1915 1 -14.2569772 -4.5634886 -41.9739544
1919 1 -15.0069772 -6.0434886 -47.9639544
1923 1 -24.0069772 -1.4234886 -39.6739544
1927 1 -15.8669772 -3.8234886 -39.8039544
1931 1 -18.0469772 -11.9534886 -45.0139544
1935 1 -24.0469772 -10.6534886 -39.7139544
1939 1 -21.7069772 -4.6534886 -42.0539544
1943 1 -19.4369772 -5.9634886 -45.7639544
1947 1 -19.4269772 -6.0034886 -38.3539544
1951 1 -21.8269772 -9.8734886 -38.2139544
1955 1 -24.0469772 -1.4334886 -44.2639544
1959 1 -22.5769772 -3.7434886 -47.9739544
1963 1 -22.5769772 -8.3434886 -48.0139544
1967 1 -15.7969772 -8.1834886 -44.2739544
1971 1 -15.7469772 -3.7934886 -44.1939544
1975 1 -16.6569772 -5.9634886 -45.7139544
1979 1 -21.7969772 -2.2534886 -38.1939544
1983 1 -17.9569772 -11.9534886 -39.0139544
1987 1 -21.0069772 -6.0434886 -48.0639544
1991 1 -15.6669772 -12.0034886 -37.4339544
1992 1 -13.3569772 -8.3034886 -35.9704658
1996 1 -20.3069772 -11.9634886 -34.6604658
2000 1 -24.0569772 -9.0034886 -29.9604658
2004 1 -15.7969772 -8.1334886 -27.8304658
2008 1 -21.8269772 -9.7934886 -33.7504658
2012 1 -23.9569772 -3.0034886 -29.9604658
2016 1 -21.8269772 -2.1334886 -33.8004658
2020 1 -17.9669772 -2.2534886 -31.4404658
2024 1 -16.6369772 -6.0034886 -26.2304658
2028 1 -14.2169772 -9.7434886 -26.1904658
2032 1 -20.2169772 -8.1334886 -32.1904658
2036 1 -21.7569772 -7.4334886 -29.9704658
2040 1 -20.1869772 -3.7434886 -32.2204658
2044 1 -20.1869772 -8.2634886 -27.8004658
2048 1 -15.7769772 -12.0034886 -34.6404658
2052 1 -18.0069772 -9.6634886 -31.4304658
2056 1 -14.2069772 -2.1834886 -33.8804658
2060 1 -18.0069772 -2.2234886 -28.6404658
2064 1 -14.3069772 -7.3534886 -30.0504658
2068 1 -20.2569772 -12.0434886 -25.4404658
2072 1 -17.9669772 -9.7034886 -28.6604658
2076 1 -20.1869772 -3.7934886 -27.8704658
2080 1 -13.3669772 -3.7734886 -36.0104658
2084 1 -14.2169772 -2.2534886 -26.1904658
2088 1 -24.0069772 -10.6334886 -32.2304658
2092 1 -14.1869772 -9.8734886 -33.8004658
2096 1 -14.2569772 -4.5634886 -29.9704658
2100 1 -15.0069772 -6.0434886 -35.9604658
2104 1 -24.0069772 -1.4234886 -27.6704658
2108 1 -15.8669772 -3.8234886 -27.8004658
2112 1 -18.0469772 -11.9534886 -33.0104658
2116 1 -24.0469772 -10.6534886 -27.7104658
2120 1 -21.7069772 -4.6534886 -30.0504658
2124 1 -19.4369772 -5.9634886 -33.7604658
2128 1 -19.4269772 -6.0034886 -26.3504658
2132 1 -21.8269772 -9.8734886 -26.2104658
2136 1 -24.0469772 -1.4334886 -32.2604658
2140 1 -22.5769772 -3.7434886 -35.9704658
2144 1 -22.5769772 -8.3434886 -36.0104658
2148 1 -15.7969772 -8.1834886 -32.2704658
2152 1 -15.7469772 -3.7934886 -32.1904658
2156 1 -16.6569772 -5.9634886 -33.7104658
2160 1 -21.7969772 -2.2534886 -26.1904658
2164 1 -17.9569772 -11.9534886 -27.0104658
2168 1 -21.0069772 -6.0434886 -36.0604658
2172 1 -15.6669772 -12.0034886 -25.4304658
2173 1 -13.3569772 -8.3034886 -23.9669772
2177 1 -20.3069772 -11.9634886 -22.6569772
2181 1 -24.0569772 -9.0034886 -17.9569772
2185 1 -15.7969772 -8.1334886 -15.8269772
2189 1 -21.8269772 -9.7934886 -21.7469772
2193 1 -23.9569772 -3.0034886 -17.9569772
2197 1 -21.8269772 -2.1334886 -21.7969772
2201 1 -17.9669772 -2.2534886 -19.4369772
2205 1 -16.6369772 -6.0034886 -14.2269772
2209 1 -14.2169772 -9.7434886 -14.1869772
2213 1 -20.2169772 -8.1334886 -20.1869772
2217 1 -21.7569772 -7.4334886 -17.9669772
2221 1 -20.1869772 -3.7434886 -20.2169772
2225 1 -20.1869772 -8.2634886 -15.7969772
2229 1 -15.7769772 -12.0034886 -22.6369772
2233 1 -18.0069772 -9.6634886 -19.4269772
2237 1 -14.2069772 -2.1834886 -21.8769772
2241 1 -18.0069772 -2.2234886 -16.6369772
2245 1 -14.3069772 -7.3534886 -18.0469772
2249 1 -20.2569772 -12.0434886 -13.4369772
2253 1 -17.9669772 -9.7034886 -16.6569772
2257 1 -20.1869772 -3.7934886 -15.8669772
2261 1 -13.3669772 -3.7734886 -24.0069772
2265 1 -14.2169772 -2.2534886 -14.1869772
2269 1 -24.0069772 -10.6334886 -20.2269772
2273 1 -14.1869772 -9.8734886 -21.7969772
2277 1 -14.2569772 -4.5634886 -17.9669772
2281 1 -15.0069772 -6.0434886 -23.9569772
2285 1 -24.0069772 -1.4234886 -15.6669772
2289 1 -15.8669772 -3.8234886 -15.7969772
2293 1 -18.0469772 -11.9534886 -21.0069772
2297 1 -24.0469772 -10.6534886 -15.7069772
2301 1 -21.7069772 -4.6534886 -18.0469772
2305 1 -19.4369772 -5.9634886 -21.7569772
2309 1 -19.4269772 -6.0034886 -14.3469772
2313 1 -21.8269772 -9.8734886 -14.2069772
2317 1 -24.0469772 -1.4334886 -20.2569772
2321 1 -22.5769772 -3.7434886 -23.9669772
2325 1 -22.5769772 -8.3434886 -24.0069772
2329 1 -15.7969772 -8.1834886 -20.2669772
2333 1 -15.7469772 -3.7934886 -20.1869772
2337 1 -16.6569772 -5.9634886 -21.7069772
2341 1 -21.7969772 -2.2534886 -14.1869772
2345 1 -17.9569772 -11.9534886 -15.0069772
2349 1 -21.0069772 -6.0434886 -24.0569772
2353 1 -15.6669772 -12.0034886 -13.4269772
2354 1 -13.3569772 -8.3034886 -11.9634886
2358 1 -20.3069772 -11.9634886 -10.6534886
2362 1 -24.0569772 -9.0034886 -5.9534886
2366 1 -15.7969772 -8.1334886 -3.8234886
2370 1 -21.8269772 -9.7934886 -9.7434886
2374 1 -23.9569772 -3.0034886 -5.9534886
2378 1 -21.8269772 -2.1334886 -9.7934886
2382 1 -17.9669772 -2.2534886 -7.4334886
2386 1 -16.6369772 -6.0034886 -2.2234886
2390 1 -14.2169772 -9.7434886 -2.1834886
2394 1 -20.2169772 -8.1334886 -8.1834886
2398 1 -21.7569772 -7.4334886 -5.9634886
2402 1 -20.1869772 -3.7434886 -8.2134886
2406 1 -20.1869772 -8.2634886 -3.7934886
2410 1 -15.7769772 -12.0034886 -10.6334886
2414 1 -18.0069772 -9.6634886 -7.4234886
2418 1 -14.2069772 -2.1834886 -9.8734886
2422 1 -18.0069772 -2.2234886 -4.6334886
2426 1 -14.3069772 -7.3534886 -6.0434886
2430 1 -20.2569772 -12.0434886 -1.4334886
2434 1 -17.9669772 -9.7034886 -4.6534886
2438 1 -20.1869772 -3.7934886 -3.8634886
2442 1 -13.3669772 -3.7734886 -12.0034886
2446 1 -14.2169772 -2.2534886 -2.1834886
2450 1 -24.0069772 -10.6334886 -8.2234886
2454 1 -14.1869772 -9.8734886 -9.7934886
2458 1 -14.2569772 -4.5634886 -5.9634886
2462 1 -15.0069772 -6.0434886 -11.9534886
2466 1 -24.0069772 -1.4234886 -3.6634886
2470 1 -15.8669772 -3.8234886 -3.7934886
2474 1 -18.0469772 -11.9534886 -9.0034886
2478 1 -24.0469772 -10.6534886 -3.7034886
2482 1 -21.7069772 -4.6534886 -6.0434886
2486 1 -19.4369772 -5.9634886 -9.7534886
2490 1 -19.4269772 -6.0034886 -2.3434886
2494 1 -21.8269772 -9.8734886 -2.2034886
2498 1 -24.0469772 -1.4334886 -8.2534886
2502 1 -22.5769772 -3.7434886 -11.9634886
2506 1 -22.5769772 -8.3434886 -12.0034886
2510 1 -15.7969772 -8.1834886 -8.2634886
2514 1 -15.7469772 -3.7934886 -8.1834886
2518 1 -16.6569772 -5.9634886 -9.7034886
2522 1 -21.7969772 -2.2534886 -2.1834886
2526 1 -17.9569772 -11.9534886 -3.0034886
2530 1 -21.0069772 -6.0434886 -12.0534886
2534 1 -15.6669772 -12.0034886 -1.4234886
2535 1 -13.3569772 -8.3034886 0.04
2539 1 -20.3069772 -11.9634886 1.35
2543 1 -24.0569772 -9.0034886 6.05
2547 1 -15.7969772 -8.1334886 8.18
2551 1 -21.8269772 -9.7934886 2.26
2555 1 -23.9569772 -3.0034886 6.05
2559 1 -21.8269772 -2.1334886 2.21
2563 1 -17.9669772 -2.2534886 4.57
2567 1 -16.6369772 -6.0034886 9.78
2571 1 -14.2169772 -9.7434886 9.82
2575 1 -20.2169772 -8.1334886 3.82
2579 1 -21.7569772 -7.4334886 6.04
2583 1 -20.1869772 -3.7434886 3.79
2587 1 -20.1869772 -8.2634886 8.21
2591 1 -15.7769772 -12.0034886 1.37
2595 1 -18.0069772 -9.6634886 4.58
2599 1 -14.2069772 -2.1834886 2.13
2603 1 -18.0069772 -2.2234886 7.37
2607 1 -14.3069772 -7.3534886 5.96
2611 1 -20.2569772 -12.0434886 10.57
2615 1 -17.9669772 -9.7034886 7.35
2619 1 -20.1869772 -3.7934886 8.14
2623 1 -13.3669772 -3.7734886 0.0
2627 1 -14.2169772 -2.2534886 9.82
2631 1 -24.0069772 -10.6334886 3.78
2635 1 -14.1869772 -9.8734886 2.21
2639 1 -14.2569772 -4.5634886 6.04
2643 1 -15.0069772 -6.0434886 0.05
2647 1 -24.0069772 -1.4234886 8.34
2651 1 -15.8669772 -3.8234886 8.21
2655 1 -18.0469772 -11.9534886 3.0
2659 1 -24.0469772 -10.6534886 8.3
2663 1 -21.7069772 -4.6534886 5.96
2667 1 -19.4369772 -5.9634886 2.25
2671 1 -19.4269772 -6.0034886 9.66
2675 1 -21.8269772 -9.8734886 9.8
2679 1 -24.0469772 -1.4334886 3.75
2683 1 -22.5769772 -3.7434886 0.04
2687 1 -22.5769772 -8.3434886 0.0
2691 1 -15.7969772 -8.1834886 3.74
2695 1 -15.7469772 -3.7934886 3.82
2699 1 -16.6569772 -5.9634886 2.3
2703 1 -21.7969772 -2.2534886 9.82
2707 1 -17.9569772 -11.9534886 9.0
2711 1 -21.0069772 -6.0434886 -0.05
2715 1 -15.6669772 -12.0034886 10.58
2716 1 -13.3569772 -8.3034886 12.0434886
2720 1 -20.3069772 -11.9634886 13.3534886
2724 1 -24.0569772 -9.0034886 18.0534886
2728 1 -15.7969772 -8.1334886 20.1834886
2732 1 -21.8269772 -9.7934886 14.2634886
2736 1 -23.9569772 -3.0034886 18.0534886
2740 1 -21.8269772 -2.1334886 14.2134886
2744 1 -17.9669772 -2.2534886 16.5734886
2748 1 -16.6369772 -6.0034886 21.7834886
2752 1 -14.2169772 -9.7434886 21.8234886
2756 1 -20.2169772 -8.1334886 15.8234886
2760 1 -21.7569772 -7.4334886 18.0434886
2764 1 -20.1869772 -3.7434886 15.7934886
2768 1 -20.1869772 -8.2634886 20.2134886
2772 1 -15.7769772 -12.0034886 13.3734886
2776 1 -18.0069772 -9.6634886 16.5834886
2780 1 -14.2069772 -2.1834886 14.1334886
2784 1 -18.0069772 -2.2234886 19.3734886
2788 1 -14.3069772 -7.3534886 17.9634886
2792 1 -20.2569772 -12.0434886 22.5734886
2796 1 -17.9669772 -9.7034886 19.3534886
2800 1 -20.1869772 -3.7934886 20.1434886
2804 1 -13.3669772 -3.7734886 12.0034886
2808 1 -14.2169772 -2.2534886 21.8234886
2812 1 -24.0069772 -10.6334886 15.7834886
2816 1 -14.1869772 -9.8734886 14.2134886
2820 1 -14.2569772 -4.5634886 18.0434886
2824 1 -15.0069772 -6.0434886 12.0534886
2828 1 -24.0069772 -1.4234886 20.3434886
2832 1 -15.8669772 -3.8234886 20.2134886
2836 1 -18.0469772 -11.9534886 15.0034886
2840 1 -24.0469772 -10.6534886 20.3034886
2844 1 -21.7069772 -4.6534886 17.9634886
2848 1 -19.4369772 -5.9634886 14.2534886
2852 1 -19.4269772 -6.0034886 21.6634886
2856 1 -21.8269772 -9.8734886 21.8034886
2860 1 -24.0469772 -1.4334886 15.7534886
2864 1 -22.5769772 -3.7434886 12.0434886
2868 1 -22.5769772 -8.3434886 12.0034886