ITEM: TIMESTEP
0
ITEM: NUMBER OF ATOMS
4600
ITEM: BOX BOUNDS pp pp pp
-24.0069772 36.0104658
-24.0069772 36.0104658
-12.0034886 36.0104658
ITEM: ATOMS id type x y z
1 1 -13.3569772 -20.3069772 -11.9634886
5 1 -20.3069772 -23.9669772 -10.6534886
9 1 -24.0569772 -21.0069772 -5.9534886
13 1 -15.7969772 -20.1369772 -3.8234886
17 1 -21.8269772 -21.7969772 -9.7434886
21 1 -23.9569772 -15.0069772 -5.9534886
25 1 -21.8269772 -14.1369772 -9.7934886
29 1 -17.9669772 -14.2569772 -7.4334886
33 1 -16.6369772 -18.0069772 -2.2234886
37 1 -14.2169772 -21.7469772 -2.1834886
41 1 -20.2169772 -20.1369772 -8.1834886
45 1 -21.7569772 -19.4369772 -5.9634886
49 1 -20.1869772 -15.7469772 -8.2134886
53 1 -20.1869772 -20.2669772 -3.7934886
57 1 -15.7769772 -24.0069772 -10.6334886
61 1 -18.0069772 -21.6669772 -7.4234886
65 1 -14.2069772 -14.1869772 -9.8734886
69 1 -18.0069772 -14.2269772 -4.6334886
73 1 -14.3069772 -19.3569772 -6.0434886
77 1 -20.2569772 -24.0469772 -1.4334886
81 1 -17.9669772 -21.7069772 -4.6534886
85 1 -20.1869772 -15.7969772 -3.8634886
89 1 -13.3669772 -15.7769772 -12.0034886
93 1 -14.2169772 -14.2569772 -2.1834886
97 1 -24.0069772 -22.6369772 -8.2234886
101 1 -14.1869772 -21.8769772 -9.7934886
105 1 -14.2569772 -16.5669772 -5.9634886
109 1 -15.0069772 -18.0469772 -11.9534886
113 1 -24.0069772 -13.4269772 -3.6634886
117 1 -15.8669772 -15.8269772 -3.7934886
121 1 -18.0469772 -23.9569772 -9.0034886
125 1 -24.0469772 -22.6569772 -3.7034886
129 1 -21.7069772 -16.6569772 -6.0434886
133 1 -19.4369772 -17.9669772 -9.7534886
137 1 -19.4269772 -18.0069772 -2.3434886
141 1 -21.8269772 -21.8769772 -2.2034886
145 1 -24.0469772 -13.4369772 -8.2534886
149 1 -22.5769772 -15.7469772 -11.9634886
153 1 -22.5769772 -20.3469772 -12.0034886
157 1 -15.7969772 -20.1869772 -8.2634886
161 1 -15.7469772 -15.7969772 -8.1834886
165 1 -16.6569772 -17.9669772 -9.7034886
169 1 -21.7969772 -14.2569772 -2.1834886
173 1 -17.9569772 -23.9569772 -3.0034886
177 1 -21.0069772 -18.0469772 -12.0534886
181 1 -15.6669772 -24.0069772 -1.4234886
182 1 -13.3569772 -20.3069772 0.04
186 1 -20.3069772 -23.9669772 1.35
190 1 -24.0569772 -21.0069772 6.05
194 1 -15.7969772 -20.1369772 8.18
198 1 -21.8269772 -21.7969772 2.26
202 1 -23.9569772 -15.0069772 6.05
206 1 -21.8269772 -14.1369772 2.21
210 1 -17.9669772 -14.2569772 4.57
214 1 -16.6369772 -18.0069772 9.78
218 1 -14.2169772 -21.7469772 9.82
222 1 -20.2169772 -20.1369772 3.82
226 1 -21.7569772 -19.4369772 6.04
230 1 -20.1869772 -15.7469772 3.79
234 1 -20.1869772 -20.2669772 8.21
238 1 -15.7769772 -24.0069772 1.37
242 1 -18.0069772 -21.6669772 4.58
246 1 -14.2069772 -14.1869772 2.13
250 1 -18.0069772 -14.2269772 7.37
254 1 -14.3069772 -19.3569772 5.96
258 1 -20.2569772 -24.0469772 10.57
262 1 -17.9669772 -21.7069772 7.35
266 1 -20.1869772 -15.7969772 8.14
270 1 -13.3669772 -15.7769772 0.0
274 1 -14.2169772 -14.2569772 9.82
278 1 -24.0069772 -22.6369772 3.78
282 1 -14.1869772 -21.8769772 2.21
286 1 -14.2569772 -16.5669772 6.04
290 1 -15.0069772 -18.0469772 0.05
294 1 -24.0069772 -13.4269772 8.34
298 1 -15.8669772 -15.8269772 8.21
302 1 -18.0469772 -23.9569772 3.0
306 1 -24.0469772 -22.6569772 8.3
310 1 -21.7069772 -16.6569772 5.96
314 1 -19.4369772 -17.9669772 2.25
318 1 -19.4269772 -18.0069772 9.66
322 1 -21.8269772 -21.8769772 9.8
326 1 -24.0469772 -13.4369772 3.75
330 1 -22.5769772 -15.7469772 0.04
334 1 -22.5769772 -20.3469772 0.0
338 1 -15.7969772 -20.1869772 3.74
342 1 -15.7469772 -15.7969772 3.82
346 1 -16.6569772 -17.9669772 2.3
350 1 -21.7969772 -14.2569772 9.82
354 1 -17.9569772 -23.9569772 9.0
358 1 -21.0069772 -18.0469772 -0.05
362 1 -15.6669772 -24.0069772 10.58
363 1 -13.3569772 -20.3069772 12.0434886
367 1 -20.3069772 -23.9669772 13.3534886
371 1 -24.0569772 -21.0069772 18.0534886
375 1 -15.7969772 -20.1369772 20.1834886
379 1 -21.8269772 -21.7969772 14.2634886
383 1 -23.9569772 -15.0069772 18.0534886
387 1 -21.8269772 -14.1369772 14.2134886
391 1 -17.9669772 -14.2569772 16.5734886
395 1 -16.6369772 -18.0069772 21.7834886
399 1 -14.2169772 -21.7469772 21.8234886
403 1 -20.2169772 -20.1369772 15.8234886
407 1 -21.7569772 -19.4369772 18.0434886
411 1 -20.1869772 -15.7469772 15.7934886
415 1 -20.1869772 -20.2669772 20.2134886
419 1 -15.7769772 -24.0069772 13.3734886
423 1 -18.0069772 -21.6669772 16.5834886
427 1 -14.2069772 -14.1869772 14.1334886
431 1 -18.0069772 -14.2269772 19.3734886
435 1 -14.3069772 -19.3569772 17.9634886
439 1 -20.2569772 -24.0469772 22.5734886
443 1 -17.9669772 -21.7069772 19.3534886
447 1 -20.1869772 -15.7969772 20.1434886
451 1 -13.3669772 -15.7769772 12.0034886
455 1 -14.2169772 -14.2569772 21.8234886
459 1 -24.0069772 -22.6369772 15.7834886
463 1 -14.1869772 -21.8769772 14.2134886
467 1 -14.2569772 -16.5669772 18.0434886
471 1 -15.0069772 -18.0469772 12.0534886
475 1 -24.0069772 -13.4269772 20.3434886
479 1 -15.8669772 -15.8269772 20.2134886
483 1 -18.0469772 -23.9569772 15.0034886
487 1 -24.0469772 -22.6569772 20.3034886
491 1 -21.7069772 -16.6569772 17.9634886
495 1 -19.4369772 -17.9669772 14.2534886
499 1 -19.4269772 -18.0069772 21.6634886
503 1 -21.8269772 -21.8769772 21.8034886
507 1 -24.0469772 -13.4369772 15.7534886
511 1 -22.5769772 -15.7469772 12.0434886
515 1 -22.5769772 -20.3469772 12.0034886
519 1 -15.7969772 -20.1869772 15.7434886
523 1 -15.7469772 -15.7969772 15.8234886
527 1 -16.6569772 -17.9669772 14.3034886
531 1 -21.7969772 -14.2569772 21.8234886
535 1 -17.9569772 -23.9569772 21.0034886
539 1 -21.0069772 -18.0469772 11.9534886
543 1 -15.6669772 -24.0069772 22.5834886
544 1 -13.3569772 -20.3069772 24.0469772
548 1 -20.3069772 -23.9669772 25.3569772
552 1 -24.0569772 -21.0069772 30.0569772
556 1 -15.7969772 -20.1369772 32.1869772
560 1 -21.8269772 -21.7969772 26.2669772
564 1 -23.9569772 -15.0069772 30.0569772
568 1 -21.8269772 -14.1369772 26.2169772
572 1 -17.9669772 -14.2569772 28.5769772
576 1 -16.6369772 -18.0069772 33.7869772
580 1 -14.2169772 -21.7469772 33.8269772
584 1 -20.2169772 -20.1369772 27.8269772
588 1 -21.7569772 -19.4369772 30.0469772
592 1 -20.1869772 -15.7469772 27.7969772
596 1 -20.1869772 -20.2669772 32.2169772
600 1 -15.7769772 -24.0069772 25.3769772
604 1 -18.0069772 -21.6669772 28.5869772
608 1 -14.2069772 -14.1869772 26.1369772
612 1 -18.0069772 -14.2269772 31.3769772
616 1 -14.3069772 -19.3569772 29.9669772
620 1 -20.2569772 -24.0469772 34.5769772
624 1 -17.9669772 -21.7069772 31.3569772
628 1 -20.1869772 -15.7969772 32.1469772
632 1 -13.3669772 -15.7769772 24.0069772
636 1 -14.2169772 -14.2569772 33.8269772
640 1 -24.0069772 -22.6369772 27.7869772
644 1 -14.1869772 -21.8769772 26.2169772
648 1 -14.2569772 -16.5669772 30.0469772
652 1 -15.0069772 -18.0469772 24.0569772
656 1 -24.0069772 -13.4269772 32.3469772
660 1 -15.8669772 -15.8269772 32.2169772
664 1 -18.0469772 -23.9569772 27.0069772
668 1 -24.0469772 -22.6569772 32.3069772
672 1 -21.7069772 -16.6569772 29.9669772
676 1 -19.4369772 -17.9669772 26.2569772
680 1 -19.4269772 -18.0069772 33.6669772
684 1 -21.8269772 -21.8769772 33.8069772
688 1 -24.0469772 -13.4369772 27.7569772
692 1 -22.5769772 -15.7469772 24.0469772
696 1 -22.5769772 -20.3469772 24.0069772
700 1 -15.7969772 -20.1869772 27.7469772
704 1 -15.7469772 -15.7969772 27.8269772
708 1 -16.6569772 -17.9669772 26.3069772
712 1 -21.7969772 -14.2569772 33.8269772
716 1 -17.9569772 -23.9569772 33.0069772
720 1 -21.0069772 -18.0469772 23.9569772
724 1 -15.6669772 -24.0069772 34.5869772
725 1 -13.3569772 -8.3034886 -11.9634886
729 1 -20.3069772 -11.9634886 -10.6534886
733 1 -24.0569772 -9.0034886 -5.9534886
737 1 -15.7969772 -8.1334886 -3.8234886
741 1 -21.8269772 -9.7934886 -9.7434886
745 1 -23.9569772 -3.0034886 -5.9534886
749 1 -21.8269772 -2.1334886 -9.7934886
753 1 -17.9669772 -2.2534886 -7.4334886
757 1 -16.6369772 -6.0034886 -2.2234886
761 1 -14.2169772 -9.7434886 -2.1834886
765 1 -20.2169772 -8.1334886 -8.1834886
769 1 -21.7569772 -7.4334886 -5.9634886
773 1 -20.1869772 -3.7434886 -8.2134886
777 1 -20.1869772 -8.2634886 -3.7934886
781 1 -15.7769772 -12.0034886 -10.6334886
785 1 -18.0069772 -9.6634886 -7.4234886
789 1 -14.2069772 -2.1834886 -9.8734886
793 1 -18.0069772 -2.2234886 -4.6334886
797 1 -14.3069772 -7.3534886 -6.0434886
801 1 -20.2569772 -12.0434886 -1.4334886
805 1 -17.9669772 -9.7034886 -4.6534886
809 1 -20.1869772 -3.7934886 -3.8634886
813 1 -13.3669772 -3.7734886 -12.0034886
817 1 -14.2169772 -2.2534886 -2.1834886
821 1 -24.0069772 -10.6334886 -8.2234886
825 1 -14.1869772 -9.8734886 -9.7934886
829 1 -14.2569772 -4.5634886 -5.9634886
833 1 -15.0069772 -6.0434886 -11.9534886
837 1 -24.0069772 -1.4234886 -3.6634886
841 1 -15.8669772 -3.8234886 -3.7934886
845 1 -18.0469772 -11.9534886 -9.0034886
849 1 -24.0469772 -10.6534886 -3.7034886
853 1 -21.7069772 -4.6534886 -6.0434886
857 1 -19.4369772 -5.9634886 -9.7534886
861 1 -19.4269772 -6.0034886 -2.3434886
865 1 -21.8269772 -9.8734886 -2.2034886
869 1 -24.0469772 -1.4334886 -8.2534886
873 1 -22.5769772 -3.7434886 -11.9634886
877 1 -22.5769772 -8.3434886 -12.0034886
881 1 -15.7969772 -8.1834886 -8.2634886
885 1 -15.7469772 -3.7934886 -8.1834886
889 1 -16.6569772 -5.9634886 -9.7034886
893 1 -21.7969772 -2.2534886 -2.1834886
897 1 -17.9569772 -11.9534886 -3.0034886
901 1 -21.0069772 -6.0434886 -12.0534886
905 1 -15.6669772 -12.0034886 -1.4234886
906 1 -13.3569772 -8.3034886 0.04
910 1 -20.3069772 -11.9634886 1.35
914 1 -24.0569772 -9.0034886 6.05
918 1 -15.7969772 -8.1334886 8.18
922 1 -21.8269772 -9.7934886 2.26
926 1 -23.9569772 -3.0034886 6.05
930 1 -21.8269772 -2.1334886 2.21
934 1 -17.9669772 -2.2534886 4.57
938 1 -16.6369772 -6.0034886 9.78
942 1 -14.2169772 -9.7434886 9.82
946 1 -20.2169772 -8.1334886 3.82
950 1 -21.7569772 -7.4334886 6.04
954 1 -20.1869772 -3.7434886 3.79
958 1 -20.1869772 -8.2634886 8.21
962 1 -15.7769772 -12.0034886 1.37
966 1 -18.0069772 -9.6634886 4.58
970 1 -14.2069772 -2.1834886 2.13
974 1 -18.0069772 -2.2234886 7.37
978 1 -14.3069772 -7.3534886 5.96
982 1 -20.2569772 -12.0434886 10.57
986 1 -17.9669772 -9.7034886 7.35
990 1 -20.1869772 -3.7934886 8.14
994 1 -13.3669772 -3.7734886 0.0
998 1 -14.2169772 -2.2534886 9.82
1002 1 -24.0069772 -10.6334886 3.78
1006 1 -14.1869772 -9.8734886 2.21
1010 1 -14.2569772 -4.5634886 6.04
1014 1 -15.0069772 -6.0434886 0.05
1018 1 -24.0069772 -1.4234886 8.34
1022 1 -15.8669772 -3.8234886 8.21
1026 1 -18.0469772 -11.9534886 3.0
1030 1 -24.0469772 -10.6534886 8.3
1034 1 -21.7069772 -4.6534886 5.96
1038 1 -19.4369772 -5.9634886 2.25
1042 1 -19.4269772 -6.0034886 9.66
1046 1 -21.8269772 -9.8734886 9.8
1050 1 -24.0469772 -1.4334886 3.75
1054 1 -22.5769772 -3.7434886 0.04
1058 1 -22.5769772 -8.3434886 0.0
1062 1 -15.7969772 -8.1834886 3.74
1066 1 -15.7469772 -3.7934886 3.82
1070 1 -16.6569772 -5.9634886 2.3
1074 1 -21.7969772 -2.2534886 9.82
1078 1 -17.9569772 -11.9534886 9.0
1082 1 -21.0069772 -6.0434886 -0.05
1086 1 -15.6669772 -12.0034886 10.58
1087 1 -13.3569772 -8.3034886 12.0434886
1091 1 -20.3069772 -11.9634886 13.3534886
1095 1 -24.0569772 -9.0034886 18.0534886
1099 1 -15.7969772 -8.1334886 20.1834886
1103 1 -21.8269772 -9.7934886 14.2634886
1107 1 -23.9569772 -3.0034886 18.0534886
1111 1 -21.8269772 -2.1334886 14.2134886
1115 1 -17.9669772 -2.2534886 16.5734886
1119 1 -16.6369772 -6.0034886 21.7834886
1123 1 -14.2169772 -9.7434886 21.8234886
1127 1 -20.2169772 -8.1334886 15.8234886
1131 1 -21.7569772 -7.4334886 18.0434886
1135 1 -20.1869772 -3.7434886 15.7934886
1139 1 -20.1869772 -8.2634886 20.2134886
1143 1 -15.7769772 -12.0034886 13.3734886
1147 1 -18.0069772 -9.6634886 16.5834886
1151 1 -14.2069772 -2.1834886 14.1334886
1155 1 -18.0069772 -2.2234886 19.3734886
1159 1 -14.3069772 -7.3534886 17.9634886
1163 1 -20.2569772 -12.0434886 22.5734886
1167 1 -17.9669772 -9.7034886 19.3534886
1171 1 -20.1869772 -3.7934886 20.1434886
1175 1 -13.3669772 -3.7734886 12.0034886
1179 1 -14.2169772 -2.2534886 21.8234886
1183 1 -24.0069772 -10.6334886 15.7834886
1187 1 -14.1869772 -9.8734886 14.2134886
1191 1 -14.2569772 -4.5634886 18.0434886
1195 1 -15.0069772 -6.0434886 12.0534886
1199 1 -24.0069772 -1.4234886 20.3434886
1203 1 -15.8669772 -3.8234886 20.2134886
1207 1 -18.0469772 -11.9534886 15.0034886
1211 1 -24.0469772 -10.6534886 20.3034886
1215 1 -21.7069772 -4.6534886 17.9634886
1219 1 -19.4369772 -5.9634886 14.2534886
1223 1 -19.4269772 -6.0034886 21.6634886
1227 1 -21.8269772 -9.8734886 21.8034886
1231 1 -24.0469772 -1.4334886 15.7534886
1235 1 -22.5769772 -3.7434886 12.0434886
1239 1 -22.5769772 -8.3434886 12.0034886
1243 1 -15.7969772 -8.1834886 15.7434886
1247 1 -15.7469772 -3.7934886 15.8234886
1251 1 -16.6569772 -5.9634886 14.3034886
1255 1 -21.7969772 -2.2534886 21.8234886
1259 1 -17.9569772 -11.9534886 21.0034886
1263 1 -21.0069772 -6.0434886 11.9534886
1267 1 -15.6669772 -12.0034886 22.5834886
1268 1 -13.3569772 -8.3034886 24.0469772
1272 1 -20.3069772 -11.9634886 25.3569772
1276 1 -24.0569772 -9.0034886 30.0569772
1280 1 -15.7969772 -8.1334886 32.1869772
1284 1 -21.8269772 -9.7934886 26.2669772
1288 1 -23.9569772 -3.0034886 30.0569772
1292 1 -21.8269772 -2.1334886 26.2169772
1296 1 -17.9669772 -2.2534886 28.5769772
1300 1 -16.6369772 -6.0034886 33.7869772
1304 1 -14.2169772 -9.7434886 33.8269772
1308 1 -20.2169772 -8.1334886 27.8269772
1312 1 -21.7569772 -7.4334886 30.0469772
1316 1 -20.1869772 -3.7434886 27.7969772
1320 1 -20.1869772 -8.2634886 32.2169772
1324 1 -15.7769772 -12.0034886 25.3769772
1328 1 -18.0069772 -9.6634886 28.5869772
1332 1 -14.2069772 -2.1834886 26.1369772
1336 1 -18.0069772 -2.2234886 31.3769772
1340 1 -14.3069772 -7.3534886 29.9669772
1344 1 -20.2569772 -12.0434886 34.5769772
1348 1 -17.9669772 -9.7034886 31.3569772
1352 1 -20.1869772 -3.7934886 32.1469772
1356 1 -13.3669772 -3.7734886 24.0069772
1360 1 -14.2169772 -2.2534886 33.8269772
1364 1 -24.0069772 -10.6334886 27.7869772
1368 1 -14.1869772 -9.8734886 26.2169772
1372 1 -14.2569772 -4.5634886 30.0469772
1376 1 -15.0069772 -6.0434886 24.0569772
1380 1 -24.0069772 -1.4234886 32.3469772
1384 1 -15.8669772 -3.8234886 32.2169772
1388 1 -18.0469772 -11.9534886 27.0069772
1392 1 -24.0469772 -10.6534886 32.3069772
1396 1 -21.7069772 -4.6534886 29.9669772
1400 1 -19.4369772 -5.9634886 26.2569772
1404 1 -19.4269772 -6.0034886 33.6669772
1408 1 -21.8269772 -9.8734886 33.8069772
1412 1 -24.0469772 -1.4334886 27.7569772
1416 1 -22.5769772 -3.7434886 24.0469772
1420 1 -22.5769772 -8.3434886 24.0069772
1424 1 -15.7969772 -8.1834886 27.7469772
1428 1 -15.7469772 -3.7934886 27.8269772
1432 1 -16.6569772 -5.9634886 26.3069772
1436 1 -21.7969772 -2.2534886 33.8269772
1440 1 -17.9569772 -11.9534886 33.0069772
1444 1 -21.0069772 -6.0434886 23.9569772
1448 1 -15.6669772 -12.0034886 34.5869772
1449 1 -13.3569772 3.7 -11.9634886
1453 1 -20.3069772 0.04 -10.6534886
1457 1 -24.0569772 3.0 -5.9534886
1461 1 -15.7969772 3.87 -3.8234886
1465 1 -21.8269772 2.21 -9.7434886
1469 1 -23.9569772 9.0 -5.9534886
1473 1 -21.8269772 9.87 -9.7934886
1477 1 -17.9669772 9.75 -7.4334886
1481 1 -16.6369772 6.0 -2.2234886
1485 1 -14.2169772 2.26 -2.1834886
1489 1 -20.2169772 3.87 -8.1834886
1493 1 -21.7569772 4.57 -5.9634886
1497 1 -20.1869772 8.26 -8.2134886
1501 1 -20.1869772 3.74 -3.7934886
1505 1 -15.7769772 0.0 -10.6334886
1509 1 -18.0069772 2.34 -7.4234886
1513 1 -14.2069772 9.82 -9.8734886
1517 1 -18.0069772 9.78 -4.6334886
1521 1 -14.3069772 4.65 -6.0434886
1525 1 -20.2569772 -0.04 -1.4334886
1529 1 -17.9669772 2.3 -4.6534886
1533 1 -20.1869772 8.21 -3.8634886
1537 1 -13.3669772 8.23 -12.0034886
1541 1 -14.2169772 9.75 -2.1834886
1545 1 -24.0069772 1.37 -8.2234886
1549 1 -14.1869772 2.13 -9.7934886
1553 1 -14.2569772 7.44 -5.9634886
1557 1 -15.0069772 5.96 -11.9534886
1561 1 -24.0069772 10.58 -3.6634886
1565 1 -15.8669772 8.18 -3.7934886
1569 1 -18.0469772 0.05 -9.0034886
1573 1 -24.0469772 1.35 -3.7034886
1577 1 -21.7069772 7.35 -6.0434886
1581 1 -19.4369772 6.04 -9.7534886
1585 1 -19.4269772 6.0 -2.3434886
1589 1 -21.8269772 2.13 -2.2034886
1593 1 -24.0469772 10.57 -8.2534886
1597 1 -22.5769772 8.26 -11.9634886
1601 1 -22.5769772 3.66 -12.0034886
1605 1 -15.7969772 3.82 -8.2634886
1609 1 -15.7469772 8.21 -8.1834886
1613 1 -16.6569772 6.04 -9.7034886
1617 1 -21.7969772 9.75 -2.1834886
1621 1 -17.9569772 0.05 -3.0034886
1625 1 -21.0069772 5.96 -12.0534886
1629 1 -15.6669772 0.0 -1.4234886
1630 1 -13.3569772 3.7 0.04
1634 1 -20.3069772 0.04 1.35
1638 1 -24.0569772 3.0 6.05
1642 1 -15.7969772 3.87 8.18
1646 1 -21.8269772 2.21 2.26
1650 1 -23.9569772 9.0 6.05
1654 1 -21.8269772 9.87 2.21
1658 1 -17.9669772 9.75 4.57
1662 1 -16.6369772 6.0 9.78
1666 1 -14.2169772 2.26 9.82
1670 1 -20.2169772 3.87 3.82
1674 1 -21.7569772 4.57 6.04
1678 1 -20.1869772 8.26 3.79
1682 1 -20.1869772 3.74 8.21
1686 1 -15.7769772 0.0 1.37
1690 1 -18.0069772 2.34 4.58
1694 1 -14.2069772 9.82 2.13
1698 1 -18.0069772 9.78 7.37
1702 1 -14.3069772 4.65 5.96
1706 1 -20.2569772 -0.04 10.57
1710 1 -17.9669772 2.3 7.35
1714 1 -20.1869772 8.21 8.14
1718 1 -13.3669772 8.23 0.0
1722 1 -14.2169772 9.75 9.82
1726 1 -24.0069772 1.37 3.78
1730 1 -14.1869772 2.13 2.21
1734 1 -14.2569772 7.44 6.04
1738 1 -15.0069772 5.96 0.05
1742 1 -24.0069772 10.58 8.34
1746 1 -15.8669772 8.18 8.21
1750 1 -18.0469772 0.05 3.0
1754 1 -24.0469772 1.35 8.3
1758 1 -21.7069772 7.35 5.96
1762 1 -19.4369772 6.04 2.25
1766 1 -19.4269772 6.0 9.66
1770 1 -21.8269772 2.13 9.8
1774 1 -24.0469772 10.57 3.75
1778 1 -22.5769772 8.26 0.04
1782 1 -22.5769772 3.66 0.0
1786 1 -15.7969772 3.82 3.74
1790 1 -15.7469772 8.21 3.82
1794 1 -16.6569772 6.04 2.3
1798 1 -21.7969772 9.75 9.82
1802 1 -17.9569772 0.05 9.0
1806 1 -21.0069772 5.96 -0.05
1810 1 -15.6669772 0.0 10.58
1811 1 -13.3569772 3.7 12.0434886
1815 1 -20.3069772 0.04 13.3534886
1819 1 -24.0569772 3.0 18.0534886
1823 1 -15.7969772 3.87 20.1834886
1827 1 -21.8269772 2.21 14.2634886
1831 1 -23.9569772 9.0 18.0534886
1835 1 -21.8269772 9.87 14.2134886
1839 1 -17.9669772 9.75 16.5734886
1843 1 -16.6369772 6.0 21.7834886
1847 1 -14.2169772 2.26 21.8234886
1851 1 -20.2169772 3.87 15.8234886
1855 1 -21.7569772 4.57 18.0434886
1859 1 -20.1869772 8.26 15.7934886
1863 1 -20.1869772 3.74 20.2134886
1867 1 -15.7769772 0.0 13.3734886
1871 1 -18.0069772 2.34 16.5834886
1875 1 -14.2069772 9.82 14.1334886
1879 1 -18.0069772 9.78 19.3734886
1883 1 -14.3069772 4.65 17.9634886
1887 1 -20.2569772 -0.04 22.5734886
1891 1 -17.9669772 2.3 19.3534886
1895 1 -20.1869772 8.21 20.1434886
1899 1 -13.3669772 8.23 12.0034886
1903 1 -14.2169772 9.75 21.8234886
1907 1 -24.0069772 1.37 15.7834886
1911 1 -14.1869772 2.13 14.2134886
1915 1 -14.2569772 7.44 18.0434886
1919 1 -15.0069772 5.96 12.0534886
1923 1 -24.0069772 10.58 20.3434886
1927 1 -15.8669772 8.18 20.2134886
1931 1 -18.0469772 0.05 15.0034886
1935 1 -24.0469772 1.35 20.3034886
1939 1 -21.7069772 7.35 17.9634886
1943 1 -19.4369772 6.04 14.2534886
1947 1 -19.4269772 6.0 21.6634886
1951 1 -21.8269772 2.13 21.8034886
1955 1 -24.0469772 10.57 15.7534886
1959 1 -22.5769772 8.26 12.0434886
1963 1 -22.5769772 3.66 12.0034886
1967 1 -15.7969772 3.82 15.7434886
1971 1 -15.7469772 8.21 15.8234886
1975 1 -16.6569772 6.04 14.3034886
1979 1 -21.7969772 9.75 21.8234886
1983 1 -17.9569772 0.05 21.0034886
1987 1 -21.0069772 5.96 11.9534886
1991 1 -15.6669772 0.0 22.5834886
1992 1 -13.3569772 3.7 24.0469772
1996 1 -20.3069772 0.04 25.3569772
2000 1 -24.0569772 3.0 30.0569772
2004 1 -15.7969772 3.87 32.1869772
2008 1 -21.8269772 2.21 26.2669772
2012 1 -23.9569772 9.0 30.0569772
2016 1 -21.8269772 9.87 26.2169772
2020 1 -17.9669772 9.75 28.5769772
2024 1 -16.6369772 6.0 33.7869772
2028 1 -14.2169772 2.26 33.8269772
2032 1 -20.2169772 3.87 27.8269772
2036 1 -21.7569772 4.57 30.0469772
2040 1 -20.1869772 8.26 27.7969772
2044 1 -20.1869772 3.74 32.2169772
2048 1 -15.7769772 0.0 25.3769772
2052 1 -18.0069772 2.34 28.5869772
2056 1 -14.2069772 9.82 26.1369772
2060 1 -18.0069772 9.78 31.3769772
2064 1 -14.3069772 4.65 29.9669772
2068 1 -20.2569772 -0.04 34.5769772
2072 1 -17.9669772 2.3 31.3569772
2076 1 -20.1869772 8.21 32.1469772
2080 1 -13.3669772 8.23 24.0069772
2084 1 -14.2169772 9.75 33.8269772
2088 1 -24.0069772 1.37 27.7869772
2092 1 -14.1869772 2.13 26.2169772
2096 1 -14.2569772 7.44 30.0469772
2100 1 -15.0069772 5.96 24.0569772
2104 1 -24.0069772 10.58 32.3469772
2108 1 -15.8669772 8.18 32.2169772
2112 1 -18.0469772 0.05 27.0069772
2116 1 -24.0469772 1.35 32.3069772
2120 1 -21.7069772 7.35 29.9669772
2124 1 -19.4369772 6.04 26.2569772
2128 1 -19.4269772 6.0 33.6669772
2132 1 -21.8269772 2.13 33.8069772
2136 1 -24.0469772 10.57 27.7569772
2140 1 -22.5769772 8.26 24.0469772
2144 1 -22.5769772 3.66 24.0069772
2148 1 -15.7969772 3.82 27.7469772
2152 1 -15.7469772 8.21 27.8269772
2156 1 -16.6569772 6.04 26.3069772
2160 1 -21.7969772 9.75 33.8269772
2164 1 -17.9569772 0.05 33.0069772
2168 1 -21.0069772 5.96 23.9569772
2172 1 -15.6669772 0.0 34.5869772
2173 1 -13.3569772 15.7034886 -11.9634886
2177 1 -20.3069772 12.0434886 -10.6534886
2181 1 -24.0569772 15.0034886 -5.9534886
2185 1 -15.7969772 15.8734886 -3.8234886
2189 1 -21.8269772 14.2134886 -9.7434886
2193 1 -23.9569772 21.0034886 -5.9534886
2197 1 -21.8269772 21.8734886 -9.7934886
2201 1 -17.9669772 21.7534886 -7.4334886
2205 1 -16.6369772 18.0034886 -2.2234886
2209 1 -14.2169772 14.2634886 -2.1834886
2213 1 -20.2169772 15.8734886 -8.1834886
2217 1 -21.7569772 16.5734886 -5.9634886
2221 1 -20.1869772 20.2634886 -8.2134886
2225 1 -20.1869772 15.7434886 -3.7934886
2229 1 -15.7769772 12.0034886 -10.6334886
2233 1 -18.0069772 14.3434886 -7.4234886
2237 1 -14.2069772 21.8234886 -9.8734886
2241 1 -18.0069772 21.7834886 -4.6334886
2245 1 -14.3069772 16.6534886 -6.0434886
2249 1 -20.2569772 11.9634886 -1.4334886
2253 1 -17.9669772 14.3034886 -4.6534886
2257 1 -20.1869772 20.2134886 -3.8634886
2261 1 -13.3669772 20.2334886 -12.0034886
2265 1 -14.2169772 21.7534886 -2.1834886
2269 1 -24.0069772 13.3734886 -8.2234886
2273 1 -14.1869772 14.1334886 -9.7934886
2277 1 -14.2569772 19.4434886 -5.9634886
2281 1 -15.0069772 17.9634886 -11.9534886
2285 1 -24.0069772 22.5834886 -3.6634886
2289 1 -15.8669772 20.1834886 -3.7934886
2293 1 -18.0469772 12.0534886 -9.0034886
2297 1 -24.0469772 13.3534886 -3.7034886
2301 1 -21.7069772 19.3534886 -6.0434886
2305 1 -19.4369772 18.0434886 -9.7534886
2309 1 -19.4269772 18.0034886 -2.3434886
2313 1 -21.8269772 14.1334886 -2.2034886
2317 1 -24.0469772 22.5734886 -8.2534886
2321 1 -22.5769772 20.2634886 -11.9634886
2325 1 -22.5769772 15.6634886 -12.0034886
2329 1 -15.7969772 15.8234886 -8.2634886
2333 1 -15.7469772 20.2134886 -8.1834886
2337 1 -16.6569772 18.0434886 -9.7034886
2341 1 -21.7969772 21.7534886 -2.1834886
2345 1 -17.9569772 12.0534886 -3.0034886
2349 1 -21.0069772 17.9634886 -12.0534886
2353 1 -15.6669772 12.0034886 -1.4234886
2354 1 -13.3569772 15.7034886 0.04
2358 1 -20.3069772 12.0434886 1.35
2362 1 -24.0569772 15.0034886 6.05
2366 1 -15.7969772 15.8734886 8.18
2370 1 -21.8269772 14.2134886 2.26
2374 1 -23.9569772 21.0034886 6.05
2378 1 -21.8269772 21.8734886 2.21
2382 1 -17.9669772 21.7534886 4.57
2386 1 -16.6369772 18.0034886 9.78
2390 1 -14.2169772 14.2634886 9.82
2394 1 -20.2169772 15.8734886 3.82
2398 1 -21.7569772 16.5734886 6.04
2402 1 -20.1869772 20.2634886 3.79
2406 1 -20.1869772 15.7434886 8.21
2410 1 -15.7769772 12.0034886 1.37
2414 1 -18.0069772 14.3434886 4.58
2418 1 -14.2069772 21.8234886 2.13
2422 1 -18.0069772 21.7834886 7.37
2426 1 -14.3069772 16.6534886 5.96
2430 1 -20.2569772 11.9634886 10.57
2434 1 -17.9669772 14.3034886 7.35
2438 1 -20.1869772 20.2134886 8.14
2442 1 -13.3669772 20.2334886 0.0
2446 1 -14.2169772 21.7534886 9.82
2450 1 -24.0069772 13.3734886 3.78
2454 1 -14.1869772 14.1334886 2.21
2458 1 -14.2569772 19.4434886 6.04
2462 1 -15.0069772 17.9634886 0.05
2466 1 -24.0069772 22.5834886 8.34
2470 1 -15.8669772 20.1834886 8.21
2474 1 -18.0469772 12.0534886 3.0
2478 1 -24.0469772 13.3534886 8.3
2482 1 -21.7069772 19.3534886 5.96
2486 1 -19.4369772 18.0434886 2.25
2490 1 -19.4269772 18.0034886 9.66
2494 1 -21.8269772 14.1334886 9.8
2498 1 -24.0469772 22.5734886 3.75
2502 1 -22.5769772 20.2634886 0.04
2506 1 -22.5769772 15.6634886 0.0
2510 1 -15.7969772 15.8234886 3.74
2514 1 -15.7469772 20.2134886 3.82
2518 1 -16.6569772 18.0434886 2.3
2522 1 -21.7969772 21.7534886 9.82
2526 1 -17.9569772 12.0534886 9.0
2530 1 -21.0069772 17.9634886 -0.05
2534 1 -15.6669772 12.0034886 10.58
2535 1 -13.3569772 15.7034886 12.0434886
2539 1 -20.3069772 12.0434886 13.3534886
2543 1 -24.0569772 15.0034886 18.0534886
2547 1 -15.7969772 15.8734886 20.1834886
2551 1 -21.8269772 14.2134886 14.2634886
2555 1 -23.9569772 21.0034886 18.0534886
2559 1 -21.8269772 21.8734886 14.2134886
2563 1 -17.9669772 21.7534886 16.5734886
2567 1 -16.6369772 18.0034886 21.7834886
2571 1 -14.2169772 14.2634886 21.8234886
2575 1 -20.2169772 15.8734886 15.8234886
2579 1 -21.7569772 16.5734886 18.0434886
2583 1 -20.1869772 20.2634886 15.7934886
2587 1 -20.1869772 15.7434886 20.2134886
2591 1 -15.7769772 12.0034886 13.3734886
2595 1 -18.0069772 14.3434886 16.5834886
2599 1 -14.2069772 21.8234886 14.1334886
2603 1 -18.0069772 21.7834886 19.3734886
2607 1 -14.3069772 16.6534886 17.9634886
2611 1 -20.2569772 11.9634886 22.5734886
2615 1 -17.9669772 14.3034886 19.3534886
2619 1 -20.1869772 20.2134886 20.1434886
2623 1 -13.3669772 20.2334886 12.0034886
2627 1 -14.2169772 21.7534886 21.8234886
2631 1 -24.0069772 13.3734886 15.7834886
2635 1 -14.1869772 14.1334886 14.2134886
2639 1 -14.2569772 19.4434886 18.0434886
2643 1 -15.0069772 17.9634886 12.0534886
2647 1 -24.0069772 22.5834886 20.3434886
2651 1 -15.8669772 20.1834886 20.2134886
2655 1 -18.0469772 12.0534886 15.0034886
2659 1 -24.0469772 13.3534886 20.3034886
2663 1 -21.7069772 19.3534886 17.9634886
2667 1 -19.4369772 18.0434886 14.2534886
2671 1 -19.4269772 18.0034886 21.6634886
2675 1 -21.8269772 14.1334886 21.8034886
2679 1 -24.0469772 22.5734886 15.7534886
2683 1 -22.5769772 20.2634886 12.0434886
2687 1 -22.5769772 15.6634886 12.0034886
2691 1 -15.7969772 15.8234886 15.7434886
2695 1 -15.7469772 20.2134886 15.8234886
2699 1 -16.6569772 18.0434886 14.3034886
2703 1 -21.7969772 21.7534886 21.8234886
2707 1 -17.9569772 12.0534886 21.0034886
2711 1 -21.0069772 17.9634886 11.9534886
2715 1 -15.6669772 12.0034886 22.5834886
2716 1 -13.3569772 15.7034886 24.0469772
2720 1 -20.3069772 12.0434886 25.3569772
2724 1 -24.0569772 15.0034886 30.0569772
2728 1 -15.7969772 15.8734886 32.1869772
2732 1 -21.8269772 14.2134886 26.2669772
2736 1 -23.9569772 21.0034886 30.0569772
2740 1 -21.8269772 21.8734886 26.2169772
2744 1 -17.9669772 21.7534886 28.5769772
2748 1 -16.6369772 18.0034886 33.7869772
2752 1 -14.2169772 14.2634886 33.8269772
2756 1 -20.2169772 15.8734886 27.8269772
2760 1 -21.7569772 16.5734886 30.0469772
2764 1 -20.1869772 20.2634886 27.7969772
2768 1 -20.1869772 15.7434886 32.2169772
2772 1 -15.7769772 12.0034886 25.3769772
2776 1 -18.0069772 14.3434886 28.5869772
2780 1 -14.2069772 21.8234886 26.1369772
2784 1 -18.0069772 21.7834886 31.3769772
2788 1 -14.3069772 16.6534886 29.9669772
2792 1 -20.2569772 11.9634886 34.5769772
2796 1 -17.9669772 14.3034886 31.3569772
2800 1 -20.1869772 20.2134886 32.1469772
2804 1 -13.3669772 20.2334886 24.0069772
2808 1 -14.2169772 21.7534886 33.8269772
2812 1 -24.0069772 13.3734886 27.7869772
2816 1 -14.1869772 14.1334886 26.2169772
2820 1 -14.2569772 19.4434886 30.0469772
2824 1 -15.0069772 17.9634886 24.0569772
2828 1 -24.0069772 22.5834886 32.3469772
2832 1 -15.8669772 20.1834886 32.2169772
2836 1 -18.0469772 12.0534886 27.0069772
2840 1 -24.0469772 13.3534886 32.3069772
2844 1 -21.7069772 19.3534886 29.9669772
2848 1 -19.4369772 18.0434886 26.2569772
2852 1 -19.4269772 18.0034886 33.6669772
2856 1 -21.8269772 14.1334886 33.8069772
2860 1 -24.0469772 22.5734886 27.7569772
2864 1 -22.5769772 20.2634886 24.0469772
2868 1 -22.5769772 15.6634886 24.0069772
2872 1 -15.7969772 15.8234886 27.7469772
2876 1 -15.7469772 20.2134886 27.8269772
2880 1 -16.6569772 18.0434886 26.3069772
2884 1 -21.7969772 21.7534886 33.8269772
2888 1 -17.9569772 12.0534886 33.0069772
2892 1 -21.0069772 17.9634886 23.9569772
2896 1 -15.6669772 12.0034886 34.5869772
2897 1 -13.3569772 27.7069772 -11.9634886
2901 1 -20.3069772 24.0469772 -10.6534886
2905 1 -24.0569772 27.0069772 -5.9534886
2909 1 -15.7969772 27.8769772 -3.8234886
2913 1 -21.8269772 26.2169772 -9.7434886
2917 1 -23.9569772 33.0069772 -5.9534886
2921 1 -21.8269772 33.8769772 -9.7934886
2925 1 -17.9669772 33.7569772 -7.4334886
2929 1 -16.6369772 30.0069772 -2.2234886
2933 1 -14.2169772 26.2669772 -2.1834886
2937 1 -20.2169772 27.8769772 -8.1834886
2941 1 -21.7569772 28.5769772 -5.9634886
2945 1 -20.1869772 32.2669772 -8.2134886
2949 1 -20.1869772 27.7469772 -3.7934886
2953 1 -15.7769772 24.0069772 -10.6334886
2957 1 -18.0069772 26.3469772 -7.4234886
2961 1 -14.2069772 33.8269772 -9.8734886
2965 1 -18.0069772 33.7869772 -4.6334886
2969 1 -14.3069772 28.6569772 -6.0434886
2973 1 -20.2569772 23.9669772 -1.4334886
2977 1 -17.9669772 26.3069772 -4.6534886
2981 1 -20.1869772 32.2169772 -3.8634886
2985 1 -13.3669772 32.2369772 -12.0034886
2989 1 -14.2169772 33.7569772 -2.1834886
2993 1 -24.0069772 25.3769772 -8.2234886
2997 1 -14.1869772 26.1369772 -9.7934886
3001 1 -14.2569772 31.4469772 -5.9634886
3005 1 -15.0069772 29.9669772 -11.9534886
3009 1 -24.0069772 34.5869772 -3.6634886
3013 1 -15.8669772 32.1869772 -3.7934886
3017 1 -18.0469772 24.0569772 -9.0034886
3021 1 -24.0469772 25.3569772 -3.7034886
3025 1 -21.7069772 31.3569772 -6.0434886
3029 1 -19.4369772 30.0469772 -9.7534886
3033 1 -19.4269772 30.0069772 -2.3434886
3037 1 -21.8269772 26.1369772 -2.2034886
3041 1 -24.0469772 34.5769772 -8.2534886
3045 1 -22.5769772 32.2669772 -11.9634886
3049 1 -22.5769772 27.6669772 -12.0034886
3053 1 -15.7969772 27.8269772 -8.2634886
3057 1 -15.7469772 32.2169772 -8.1834886
3061 1 -16.6569772 30.0469772 -9.7034886
3065 1 -21.7969772 33.7569772 -2.1834886
3069 1 -17.9569772 24.0569772 -3.0034886
3073 1 -21.0069772 29.9669772 -12.0534886
3077 1 -15.6669772 24.0069772 -1.4234886
3078 1 -13.3569772 27.7069772 0.04